# vtk DataFile Version 3.0
vtk output
ASCII
DATASET STRUCTURED_POINTS
DIMENSIONS 199 45 33
ORIGIN 0.0005025 -5.5e-05 -8e-05
SPACING 2.5e-06 2.5e-06 2.5e-06
POINT_DATA 295515
SCALARS Angle_z short 1
LOOKUP_TABLE default
23 23 23 23 23 23 23 23 23 23 23 11 11 11 11 11 11 52 52 52 52 52 52 52 52 52 52 52 46 36 36 36 36 36 36 36 36 36 36 36 36 36 36 36 36 36 36 36 14 14 14 14 14 14 14 14 14 14 14 14 14 14 14 14 14 14 14 14 48 48 48 48 48 42 42 42 42 42 42 42 42 42 41 41 41 41 41 41 41 41 41 41 41 29 29 29 29 29 29 29 29 44 44 44 44 44 44 30 30 30 30 30 48 48 48 48 48 48 48 48 48 48 48 48 48 48 48 48 48 28 23 23 23 23 23 31 31 31 31 31 31 31 31 31 31 31 31 31 31 31 31 31 31 31 31 34 34 34 34 34 34 34 34 34 34 34 34 34 34 34 34 29 29 29 29 29 29 29 29 29 29 29 29 29 29 29 29 29 29 11 11 11 11 11 11 11 11 11 11 23 23 23 23 23 23 23 23 23 23 23 11 11 11 11 11 52 52 52 52 52 52 52 52 52 52 52 52 52 36 36 36 36 36 36 36 36 36 36 36 36 36 36 36 36 36 36 36 14 14 14 14 14 14 14 14 14 14 14 14 14 14 14 14 14 14 14 14 48 48 48 48 48 42 42 42 42 42 42 42 42 42 42 41 41 41 41 41 41 41 41 41 41 29 29 29 29 29 29 29 44 44 44 44 44 44 44 30 30 30 30 30 48 48 48 48 48 48 48 48 48 48 48 48 48 48 48 48 28 28 23 23 23 23 23 23 23 23 31 31 31 31 31 31 31 31 31 31 31 31 31 31 31 31 31 34 34 34 34 34 34 34 34 34 34 34 34 34 34 34 34 29 29 29 29 29 29 29 29 29 29 29 29 29 29 29 29 29 29 11 11 11 11 11 11 11 11 11 11 23 23 23 23 23 23 23 23 23 23 23 11 11 11 11 11 52 52 52 52 52 52 52 52 52 52 52 52 52 36 36 36 36 36 36 36 36 36 36 36 36 36 36 36 36 36 36 36 14 14 14 14 14 14 14 14 14 14 14 14 14 14 14 14 14 14 14 14 48 48 48 48 48 42 42 42 42 42 42 42 42 42 42 41 41 41 41 41 41 41 41 41 29 29 29 29 29 29 29 44 44 44 44 44 44 44 44 30 30 30 30 30 48 48 48 48 48 48 48 48 48 48 48 48 48 48 48 48 28 28 23 23 23 23 23 23 23 23 23 23 31 31 31 31 31 31 31 31 31 31 31 31 31 31 34 34 34 34 34 34 34 34 34 34 34 34 34 34 34 34 34 34 29 29 29 29 29 29 29 29 29 29 29 29 29 29 29 29 29 11 11 11 11 11 11 11 11 11 11 23 23 23 23 23 23 23 23 23 23 23 11 11 11 11 52 52 52 52 52 52 52 52 52 52 52 52 52 52 36 36 36 36 36 36 36 36 36 36 36 36 36 36 36 36 36 36 36 14 14 14 14 14 14 14 14 14 14 14 14 14 14 14 14 14 14 14 14 48 48 48 48 48 42 42 42 42 42 42 42 42 42 42 42 41 41 41 41 41 41 41 41 29 29 29 29 29 29 44 44 44 44 44 44 44 44 44 44 30 30 30 30 48 48 48 48 48 48 48 48 48 48 48 48 48 48 48 28 28 23 23 23 23 23 23 23 23 23 23 23 23 23 31 31 31 31 31 31 31 31 31 31 31 31 34 34 34 34 34 34 34 34 34 34 34 34 34 34 34 34 34 34 29 29 29 29 29 29 29 29 29 29 29 29 29 29 29 29 29 11 11 11 11 11 11 11 11 11 11 23 23 23 23 23 23 23 23 23 23 23 11 11 11 11 52 52 52 52 52 52 52 52 52 52 52 52 52 52 36 36 36 36 36 36 36 36 36 36 36 36 36 36 36 36 36 36 36 14 14 14 14 14 14 14 14 14 14 14 14 14 14 14 14 14 14 14 48 48 48 48 48 48 42 42 42 42 42 42 42 42 42 42 42 42 41 41 41 41 41 41 41 29 29 29 29 29 44 44 44 44 44 44 44 44 44 44 44 30 30 30 30 48 48 48 48 48 48 48 48 48 48 48 48 48 48 48 28 37 23 23 23 23 23 23 23 23 23 23 23 23 23 23 23 31 31 31 31 31 31 31 52 52 52 34 34 34 34 34 34 34 34 34 34 34 34 34 34 34 34 34 34 29 29 29 29 29 29 29 29 29 29 29 29 29 29 29 29 29 11 11 11 11 11 11 11 11 11 11 23 23 23 23 23 23 23 23 23 23 23 11 11 11 11 52 52 52 52 52 52 52 52 52 52 52 52 52 52 52 36 36 36 36 36 36 36 36 36 36 36 36 36 36 36 36 36 36 14 14 14 14 14 14 14 14 14 14 14 14 14 14 14 14 14 14 14 48 48 48 48 48 48 42 42 42 42 42 42 42 42 42 42 42 42 41 41 41 41 41 41 29 29 29 29 29 44 44 44 44 44 44 44 44 44 44 44 44 30 30 30 30 48 48 48 48 48 48 48 48 48 48 48 48 48 48 37 37 37 37 23 23 23 23 23 23 23 23 23 23 23 23 23 23 23 23 23 31 52 52 52 52 52 52 34 34 34 34 34 34 34 34 34 34 34 34 34 34 34 34 34 34 29 29 29 29 29 29 29 29 29 29 29 29 29 29 29 29 29 11 11 11 11 11 11 11 11 11 11 23 23 23 23 23 23 23 23 23 23 37 37 37 37 37 52 52 52 52 52 52 52 52 52 52 52 52 52 52 52 36 36 36 36 36 36 36 36 36 36 36 36 36 36 36 36 36 36 36 14 14 14 14 14 14 14 14 14 14 14 14 14 14 14 14 14 14 48 48 48 48 48 48 42 42 42 42 42 42 42 42 42 42 42 42 42 41 41 41 41 41 29 29 29 29 44 44 44 44 44 44 44 44 44 44 44 44 44 30 30 30 48 48 48 48 48 48 48 48 48 48 48 48 48 37 37 37 37 37 37 23 23 23 23 23 23 23 23 23 23 23 23 23 23 23 23 23 52 52 52 52 52 52 52 34 34 34 34 34 34 34 34 34 34 34 34 34 34 34 34 34 34 34 29 29 29 29 29 29 29 29 29 29 29 29 29 29 29 29 11 11 11 11 11 11 11 11 11 11 23 23 23 23 23 23 23 23 23 23 37 37 37 37 37 37 52 52 52 52 52 52 52 52 52 52 52 52 52 52 36 36 36 36 36 36 36 36 36 36 36 36 36 36 36 36 36 36 36 14 14 14 14 14 14 14 14 14 14 14 14 14 14 14 14 14 14 48 48 48 48 48 48 42 42 42 42 42 42 42 42 42 42 42 42 42 42 42 42 41 29 29 29 29 44 44 44 44 44 44 44 44 44 44 44 44 44 44 44 30 30 48 48 48 48 48 48 48 48 48 48 48 37 37 37 37 37 37 37 37 37 23 23 23 23 23 23 23 23 23 23 23 23 23 23 23 23 52 52 52 52 52 52 52 52 34 34 34 34 34 34 34 34 34 34 34 34 34 34 34 34 34 34 29 29 29 29 29 29 29 29 29 29 29 29 29 29 29 29 11 11 11 11 11 11 11 11 11 11 23 23 23 23 23 23 23 23 23 37 37 37 37 37 37 37 52 52 52 52 52 52 52 52 52 52 52 52 52 52 36 36 36 36 36 36 36 36 36 36 36 36 36 36 36 36 36 36 25 22 14 14 14 14 14 14 14 14 14 14 14 14 14 14 14 14 14 15 15 48 48 48 48 42 42 42 42 42 42 42 42 42 42 42 42 42 42 42 42 42 42 29 29 44 44 44 44 44 44 44 44 44 44 44 44 44 44 44 44 38 38 38 38 38 38 38 38 38 38 38 38 37 37 37 37 37 37 37 37 37 37 23 23 23 23 23 23 23 23 23 23 23 23 23 23 23 52 52 52 52 52 52 52 52 52 34 34 34 34 34 34 34 34 34 34 34 34 34 34 34 34 34 34 29 29 29 29 29 29 29 29 29 29 29 29 29 29 12 12 12 11 11 11 11 11 11 11 11 11 23 23 23 23 23 23 23 23 37 37 37 37 37 37 37 37 37 52 52 52 52 52 52 52 52 52 52 52 52 52 36 36 36 36 36 36 36 36 36 36 36 36 36 36 36 36 36 25 25 22 22 22 14 14 14 14 14 14 14 14 14 14 14 14 14 14 15 15 15 15 15 15 15 42 42 42 42 42 42 42 42 42 42 42 42 42 42 42 42 42 42 42 44 44 44 44 44 44 44 44 44 44 44 44 44 44 44 44 44 38 38 38 38 38 38 38 38 38 38 38 38 37 37 37 37 37 37 37 37 37 37 23 23 23 23 23 23 23 23 23 23 23 23 23 23 23 52 52 52 52 52 52 52 52 52 34 34 34 34 34 34 34 34 34 34 34 34 34 34 34 34 34 34 34 29 29 29 29 29 29 29 29 29 29 29 29 12 12 12 12 12 12 11 11 11 11 11 11 11 23 23 23 23 23 37 37 37 37 37 37 37 37 37 37 37 37 37 52 52 52 52 52 52 52 52 52 52 52 52 36 36 36 36 36 36 36 36 36 36 36 36 36 36 36 25 25 25 22 22 22 22 22 22 14 14 14 14 14 14 14 14 14 14 14 14 15 15 15 15 15 15 15 15 42 42 42 42 42 42 42 42 42 42 42 42 42 42 42 42 42 42 42 44 44 44 44 44 44 44 44 44 44 44 44 44 44 9 38 38 38 38 38 38 38 38 38 38 38 38 38 37 37 37 37 37 37 37 37 37 37 37 23 23 23 23 23 23 23 23 23 23 23 23 23 52 52 52 52 52 52 52 52 52 52 34 34 34 34 34 34 34 34 34 34 34 34 34 34 34 34 34 34 34 29 29 29 29 29 29 29 29 29 29 12 12 12 12 12 12 12 12 12 32 11 11 11 11 11 37 37 37 37 37 37 37 37 37 37 37 37 37 37 37 37 37 37 52 52 52 52 52 52 52 52 52 52 52 52 52 36 36 36 36 36 36 36 36 36 36 36 36 36 29 25 25 25 22 22 22 22 22 22 22 22 14 14 14 14 14 14 14 30 30 30 15 15 15 15 15 15 15 15 15 42 42 42 42 42 42 42 48 48 42 42 42 42 42 42 42 42 42 44 44 44 44 44 44 44 44 44 44 44 44 44 9 51 38 38 38 38 38 38 38 38 38 38 38 38 38 37 37 37 37 37 37 37 37 37 37 37 23 23 23 23 23 23 23 23 23 23 23 23 23 52 52 52 52 52 52 52 52 52 52 52 34 34 34 34 34 34 34 34 34 34 34 34 34 34 34 34 34 20 20 29 29 29 26 26 26 26 26 26 12 12 12 12 12 12 12 12 12 32 32 32 32 32 32 37 37 37 37 37 37 37 37 37 37 37 37 37 37 37 37 37 37 37 52 52 52 52 52 52 52 52 52 52 52 52 36 36 36 36 36 36 36 36 36 36 36 29 29 29 25 25 25 22 22 22 22 22 22 22 22 22 22 14 30 30 30 30 30 30 30 30 15 15 15 15 15 15 15 15 42 42 42 42 42 42 48 48 48 42 42 42 42 42 42 42 42 42 42 44 44 44 44 44 44 44 44 44 44 44 51 51 51 51 38 38 38 38 38 38 38 38 38 38 38 38 37 37 37 37 37 37 37 37 37 37 37 23 23 23 23 23 23 23 23 23 23 23 23 23 52 52 52 52 52 52 52 52 52 52 52 34 34 34 34 34 34 34 34 34 34 34 34 34 34 34 20 20 20 20 26 26 26 26 26 26 26 26 26 12 12 12 12 12 12 12 12 12 32 32 32 32 32 32 37 37 37 37 37 37 37 37 37 37 37 37 37 37 37 37 37 37 37 52 52 52 52 52 52 52 52 52 52 52 52 36 36 36 36 36 36 36 36 36 29 29 29 29 29 25 25 25 22 22 22 22 22 22 22 22 22 22 30 30 30 30 30 30 30 30 30 15 15 15 15 15 15 15 15 15 42 42 42 48 48 48 48 48 48 42 42 42 42 42 42 42 42 42 17 44 44 44 44 44 44 44 44 51 51 51 51 51 51 38 38 38 38 38 38 38 38 38 38 38 38 37 37 37 37 37 37 37 37 37 37 37 37 23 23 23 23 23 23 23 23 23 23 23 52 52 52 52 52 52 52 52 52 52 52 52 34 34 34 34 34 34 34 34 34 34 34 34 34 20 20 20 20 20 20 26 26 26 26 26 26 26 26 26 12 12 12 12 12 12 12 12 12 32 32 32 32 32 32 37 37 37 37 37 37 37 37 37 37 37 37 37 37 37 37 37 37 37 37 52 52 52 52 52 52 52 52 52 52 18 18 36 36 36 36 36 36 29 29 29 29 29 29 29 25 25 25 22 22 22 22 22 22 22 22 22 22 30 30 30 30 30 30 30 30 30 30 15 15 15 15 15 15 15 15 42 42 48 48 48 48 48 48 48 42 42 42 42 42 42 42 42 17 17 17 17 17 17 44 44 44 51 51 51 51 51 51 51 38 38 38 38 38 38 38 38 38 38 38 38 37 37 37 37 37 37 37 37 37 37 37 37 23 23 23 23 23 23 23 23 23 23 23 52 52 52 52 52 52 52 52 52 52 52 52 34 34 34 34 34 34 34 34 34 34 34 34 20 20 20 20 20 20 20 26 26 26 26 26 26 26 26 26 12 12 12 12 12 12 12 12 12 32 32 32 32 32 32 37 37 37 37 37 37 37 37 37 37 37 37 37 37 37 37 37 37 37 37 37 52 52 52 52 52 52 52 52 52 18 18 18 36 36 36 29 29 29 29 29 29 29 29 29 25 25 25 22 22 22 22 22 22 22 22 22 22 30 30 30 30 30 30 30 30 30 30 42 15 15 15 15 15 15 15 15 48 48 48 48 48 48 48 48 42 42 42 42 42 42 42 22 22 22 17 17 17 17 17 17 51 51 51 51 51 51 51 51 38 38 38 38 38 38 38 38 38 38 34 14 37 37 37 37 37 37 37 37 37 37 37 37 23 23 23 23 23 23 23 23 23 23 23 52 52 52 52 52 52 52 52 52 52 52 52 52 34 34 34 34 34 34 34 34 34 20 20 20 20 20 20 20 20 20 26 26 26 26 26 26 26 26 26 12 12 12 12 12 12 12 12 12 32 32 32 32 32 32 37 37 37 37 37 37 37 37 37 37 37 37 37 37 37 37 37 37 37 37 37 37 52 52 52 52 52 52 52 18 18 18 18 18 29 29 29 29 29 29 29 29 29 29 35 35 25 22 22 22 22 22 22 22 22 22 22 22 30 30 30 30 30 30 30 30 30 30 42 42 42 15 15 15 15 15 48 48 48 48 48 48 48 48 48 42 42 42 42 42 22 22 22 22 22 22 17 17 17 17 17 17 51 51 51 51 51 51 51 38 38 38 38 38 38 38 34 34 34 34 14 14 14 37 37 37 37 37 37 37 37 37 37 37 23 23 23 23 23 23 23 23 23 52 52 52 52 52 52 52 52 52 52 52 52 52 52 34 34 34 34 34 34 34 20 20 20 20 20 20 20 20 20 20 20 26 26 26 26 26 26 26 26 26 12 12 12 12 12 12 12 12 12 32 32 32 32 32 32 37 37 37 37 37 37 37 37 37 37 37 37 37 37 37 37 37 37 37 37 37 37 52 52 52 52 52 52 18 18 18 18 18 6 29 29 29 29 29 29 29 29 29 35 35 35 35 35 22 22 22 22 22 22 22 22 22 22 30 30 30 30 30 30 30 30 30 30 42 42 42 42 42 15 15 15 48 48 48 48 48 48 48 48 48 48 42 42 42 22 22 22 22 22 22 22 22 17 17 17 17 17 51 51 51 51 51 51 51 38 38 38 38 34 34 34 34 34 34 34 14 14 14 14 37 37 37 37 37 37 37 37 37 42 23 23 23 23 23 23 23 23 23 52 52 52 52 52 52 52 52 52 52 52 52 52 29 29 29 29 29 29 29 29 20 20 20 20 20 20 20 20 20 20 20 26 26 26 26 26 26 26 26 26 26 12 12 12 12 12 12 12 12 32 32 32 32 32 32 21 21 21 21 21 37 37 37 37 37 37 37 37 37 37 37 37 37 37 37 37 37 37 52 52 52 52 52 18 6 6 6 6 6 6 29 29 29 29 29 29 35 35 35 35 35 35 35 22 22 22 22 22 22 22 22 22 22 30 30 30 30 30 30 30 30 30 45 42 42 42 42 42 42 42 15 48 48 48 48 48 48 48 48 48 48 27 27 27 22 22 22 22 22 22 22 22 22 17 17 17 17 51 51 51 51 51 51 51 38 34 34 34 34 34 34 34 34 34 14 14 14 14 14 14 37 37 37 37 37 42 42 42 42 42 23 23 23 23 23 23 23 52 52 52 52 52 52 52 52 52 52 52 52 52 29 29 29 29 29 29 29 29 29 29 20 20 20 20 20 20 20 20 20 20 26 26 26 26 26 26 26 26 26 26 12 12 12 12 12 12 12 12 32 32 32 32 32 32 21 21 21 21 21 21 37 37 37 37 37 37 37 37 37 37 37 37 37 37 37 37 37 37 52 52 52 6 6 6 6 6 6 6 6 6 29 29 29 29 35 35 35 35 35 35 35 35 22 22 22 22 22 22 22 22 22 22 30 30 30 30 30 30 30 30 45 45 45 45 45 42 42 46 46 46 46 48 48 48 48 48 48 48 31 31 31 27 22 22 22 22 22 22 22 22 22 22 22 17 17 17 17 51 51 51 51 51 51 34 34 34 34 34 34 34 34 34 34 14 14 14 14 14 14 14 14 42 42 42 42 42 42 42 42 42 42 23 23 23 23 23 52 52 52 52 52 52 52 52 52 52 52 52 29 29 29 29 29 29 29 29 29 29 29 29 20 20 20 20 20 20 20 20 20 26 26 26 26 26 26 26 26 26 26 12 12 12 12 12 12 12 12 32 32 32 32 32 32 21 21 21 21 21 21 21 37 37 37 37 37 37 37 37 37 37 37 37 37 37 37 37 23 23 6 6 6 6 6 6 6 6 6 6 6 6 29 35 35 35 35 35 35 35 35 35 35 22 22 22 22 22 22 22 22 22 22 30 30 30 30 30 30 45 45 45 45 45 45 45 45 46 46 46 46 46 49 48 48 48 31 31 31 31 31 31 31 22 22 22 22 22 22 22 22 22 22 22 22 17 17 17 51 51 51 51 51 51 34 34 34 34 34 34 34 34 34 34 14 14 14 14 14 14 14 42 42 42 42 42 42 42 42 42 42 24 24 24 24 24 24 52 52 52 52 52 52 52 52 52 52 52 52 29 29 29 29 29 29 29 29 29 29 29 29 29 20 20 20 20 20 20 20 20 26 26 26 26 26 26 26 26 26 26 12 12 12 12 12 12 12 12 32 32 32 32 32 32 21 21 21 21 21 21 21 21 37 37 37 37 37 37 37 37 37 37 37 37 37 37 23 23 23 6 6 6 6 6 6 6 6 6 6 6 6 35 35 35 35 35 35 35 35 35 35 35 35 22 22 22 22 22 22 22 48 48 48 48 30 30 45 45 45 45 45 45 45 45 45 45 46 46 46 46 46 49 49 49 31 31 31 31 31 31 31 31 22 22 22 22 22 22 22 22 22 22 22 22 17 17 17 51 51 51 51 51 51 34 34 34 34 34 34 34 34 34 14 14 14 14 14 14 14 42 42 42 42 42 42 42 42 42 42 42 24 24 24 24 24 24 24 52 52 52 52 52 52 52 52 52 52 29 29 29 29 29 29 29 29 29 29 29 29 29 29 29 20 20 20 20 20 20 44 44 26 26 26 26 26 26 26 26 26 12 12 12 12 12 12 12 12 32 32 32 32 32 32 21 21 21 21 21 21 21 21 21 37 37 37 37 37 37 37 37 37 37 37 29 29 29 29 29 6 6 6 6 6 6 6 6 6 6 6 6 6 35 35 35 35 35 35 35 35 35 35 35 22 22 22 22 22 48 48 48 48 48 48 48 48 45 45 45 45 45 45 45 45 45 46 46 46 46 46 46 49 49 49 49 31 31 31 31 31 31 31 31 22 22 22 22 22 22 22 22 22 22 22 22 22 17 17 51 51 51 51 34 34 34 34 34 34 34 34 34 34 14 14 14 14 14 14 42 42 42 42 42 42 42 42 42 42 42 42 24 24 24 24 24 24 24 24 24 52 52 52 52 52 52 52 29 29 29 29 29 29 29 29 29 29 29 29 29 29 29 29 29 20 20 20 20 44 44 44 44 44 26 26 26 26 26 26 26 12 12 12 12 12 12 12 12 32 32 32 32 32 32 21 21 21 21 21 21 21 21 21 37 37 37 37 37 37 37 37 37 29 29 29 29 29 29 29 29 6 6 6 6 6 6 6 6 6 6 6 6 35 35 35 35 35 35 35 35 35 35 35 22 22 22 48 48 48 48 48 48 48 48 48 48 45 45 45 45 45 45 45 45 45 46 46 46 46 46 49 49 49 49 49 49 31 31 31 31 31 31 31 22 22 22 22 22 22 22 22 22 22 22 22 22 22 30 30 30 30 51 34 34 34 34 34 34 34 34 34 40 14 14 14 14 14 42 42 42 42 42 42 42 42 42 42 42 42 24 24 24 24 24 24 24 24 24 24 24 52 52 52 52 52 29 29 29 29 29 29 29 29 29 29 29 29 29 29 29 29 29 29 29 20 20 44 44 44 44 44 44 44 44 26 26 26 26 26 26 12 12 12 12 12 12 12 32 32 32 32 32 32 21 21 21 21 21 21 21 21 21 21 21 37 37 37 37 29 29 29 29 29 29 29 29 29 29 29 6 6 6 6 6 6 6 6 6 6 6 6 6 35 35 35 35 35 35 35 35 35 35 35 22 48 48 48 48 48 48 48 48 48 48 48 45 45 45 45 45 45 45 45 45 46 46 46 46 46 49 49 49 49 49 49 31 31 31 31 31 31 31 22 22 22 22 22 22 22 22 22 22 22 22 22 22 30 30 30 30 30 34 34 34 40 40 40 40 40 40 40 40 40 14 14 42 42 42 42 42 42 42 42 42 42 42 42 42 24 24 24 24 24 24 24 24 24 24 24 24 24 52 52 29 29 29 29 29 29 29 29 29 29 29 29 29 29 29 29 29 29 29 29 29 44 44 44 44 44 44 44 44 44 44 44 26 26 26 26 12 12 12 12 12 12 12 32 32 32 32 32 32 21 21 21 21 21 21 21 21 21 21 21 21 21 29 29 29 29 29 29 29 29 29 29 29 29 29 29 6 6 6 6 6 6 6 6 6 6 6 6 35 35 35 35 35 35 35 35 35 35 48 48 48 48 48 48 48 48 48 48 48 48 48 45 45 45 45 45 45 45 45 45 46 46 46 46 49 49 49 49 49 49 49 49 31 31 31 31 31 31 30 30 30 22 22 22 22 22 22 22 22 22 22 22 30 30 30 30 30 26 26 40 40 40 40 40 40 40 40 40 40 40 40 42 42 42 42 42 42 42 42 42 42 42 42 42 24 24 24 24 24 24 24 24 24 24 24 24 24 24 29 29 29 29 29 29 29 29 29 29 29 29 29 29 29 29 29 29 29 29 29 29 44 44 44 44 44 44 44 44 44 44 44 44 44 26 26 12 12 12 12 12 12 12 32 32 32 32 32 32 21 21 21 21 21 21 21 21 21 21 21 21 21 29 29 29 29 29 29 29 29 29 29 29 29 29 29 6 6 6 6 6 6 6 6 6 6 6 6 35 35 35 35 35 35 35 35 35 35 48 48 48 48 48 48 48 48 48 48 48 48 48 48 48 45 45 45 45 45 45 46 46 46 46 46 49 49 49 49 49 49 49 49 49 31 31 31 31 30 30 30 30 30 30 43 43 43 43 43 43 43 43 43 43 40 40 40 26 26 26 26 26 40 40 40 40 40 40 42 42 42 42 42 42 42 42 42 42 42 42 42 42 42 42 24 24 24 24 24 24 24 24 24 24 24 24 24 24 24 42 29 29 29 29 29 29 29 29 29 29 29 29 29 29 29 29 29 29 29 29 29 44 44 44 44 44 44 44 44 44 44 44 44 44 41 41 41 41 41 41 12 12 12 32 32 32 32 32 32 21 21 21 21 21 21 21 21 21 21 21 21 21 29 29 29 29 29 29 29 29 29 29 29 29 29 29 29 6 6 6 6 6 6 6 6 6 6 6 25 25 35 35 35 35 35 35 35 48 48 48 48 48 48 48 48 48 48 48 48 48 48 48 48 48 45 45 45 45 45 46 46 46 46 46 49 49 49 49 49 49 49 49 49 49 31 31 30 30 30 30 30 30 30 43 43 43 43 43 43 43 43 43 40 40 40 40 26 26 26 26 26 26 26 40 42 42 42 42 42 42 42 42 42 42 42 42 42 42 42 42 42 42 42 24 24 24 24 24 24 24 24 24 24 24 24 24 24 42 42 42 29 29 29 29 29 29 29 29 29 29 29 29 29 29 29 29 29 29 29 29 44 44 44 44 44 44 44 44 44 44 44 44 44 41 41 41 41 41 41 41 41 41 32 32 32 32 32 32 21 21 21 21 21 21 21 21 21 21 21 21 21 29 29 29 29 29 29 29 29 29 29 29 29 29 29 29 6 6 6 6 6 6 6 6 6 6 25 25 25 25 25 25 35 35 35 35 48 48 48 48 48 48 48 48 48 48 48 48 48 48 48 48 48 48 45 45 45 45 46 46 46 46 49 49 49 49 49 49 49 49 49 49 49 49 30 30 30 30 30 30 30 30 43 43 43 43 43 43 43 43 40 40 40 40 40 26 26 26 26 26 26 26 42 42 42 42 42 42 42 42 42 42 42 42 42 42 42 42 42 42 42 24 24 24 24 24 24 24 24 24 24 24 24 24 24 39 42 42 42 42 42 29 29 29 29 29 29 29 29 29 29 29 29 29 29 29 29 29 29 45 45 44 44 44 44 44 44 44 44 44 44 41 41 41 41 41 41 41 41 41 41 41 41 32 32 32 32 21 21 21 21 21 21 21 21 21 21 21 21 21 29 29 29 29 29 29 29 29 29 29 29 29 29 29 29 29 6 6 6 6 6 6 6 6 25 25 25 25 25 25 25 25 25 25 48 48 48 48 48 48 48 48 48 48 48 48 48 48 48 48 48 48 48 48 48 45 45 46 46 46 46 49 49 49 49 49 49 49 49 49 49 49 49 30 30 30 30 30 30 30 30 43 43 43 43 43 43 43 40 40 40 40 40 40 26 26 26 26 26 26 26 26 42 42 42 42 42 42 42 42 42 42 42 42 42 42 42 42 42 42 24 24 24 24 24 24 24 24 24 24 24 24 24 39 39 42 42 42 42 42 42 29 29 29 29 29 29 29 29 29 29 29 29 29 29 29 29 45 45 45 45 44 44 44 44 44 44 12 12 12 12 41 41 41 41 41 41 41 41 41 41 41 41 32 32 32 21 21 21 21 21 21 21 21 21 21 21 21 21 29 29 29 29 29 29 29 29 29 29 29 29 29 29 29 29 6 6 6 6 6 6 6 25 25 25 25 25 25 25 25 25 25 50 50 50 48 48 48 48 48 48 48 48 48 48 48 48 48 48 48 48 48 48 48 48 46 46 46 46 46 49 49 49 49 49 49 49 49 49 49 49 34 30 30 30 30 30 30 30 30 43 43 43 43 43 43 40 40 40 40 40 40 40 40 26 26 26 26 26 26 26 42 42 42 42 42 42 42 42 42 42 42 42 42 42 42 42 42 42 24 24 24 24 24 24 24 24 24 24 24 35 39 39 39 42 42 42 42 42 42 42 42 29 29 29 29 29 29 29 29 29 29 29 29 29 45 45 45 45 45 45 45 12 12 12 12 12 12 12 12 12 41 41 41 41 41 41 41 41 41 41 41 41 32 32 21 21 21 21 21 21 21 21 21 21 21 21 21 21 21 29 29 29 29 29 29 29 29 29 29 29 29 29 29 29 6 6 6 6 6 25 25 25 25 25 25 25 25 25 25 25 50 50 50 50 50 48 48 48 48 48 48 48 48 48 48 48 48 48 48 48 48 48 48 48 46 46 46 49 49 49 49 49 49 49 49 49 49 49 34 34 34 30 30 30 30 30 30 30 43 43 43 43 43 43 40 40 40 40 40 40 40 40 26 26 26 26 26 26 26 26 42 42 42 42 42 42 42 42 42 42 42 42 42 42 42 42 24 24 24 24 24 24 24 24 24 24 35 35 35 35 39 39 42 42 42 42 42 42 42 42 42 29 29 29 29 29 29 29 29 29 29 29 45 45 45 45 45 45 45 45 45 12 12 12 12 12 12 12 12 41 41 41 41 41 41 41 41 41 41 41 41 41 41 21 21 21 21 21 21 21 21 21 21 21 21 21 21 21 21 21 21 29 29 29 29 29 29 29 29 29 29 29 29 6 6 6 6 25 25 25 25 25 25 25 25 25 25 25 50 50 50 50 50 50 50 50 48 48 48 48 48 48 48 48 48 48 48 48 48 48 48 48 48 46 46 46 49 49 49 49 49 49 7 7 7 7 7 34 34 34 30 30 30 30 30 30 30 43 43 43 43 43 40 40 40 40 40 40 40 40 40 26 26 26 26 26 26 26 26 42 42 42 42 42 42 42 42 42 42 42 42 42 42 42 42 24 24 24 24 24 24 24 24 35 35 35 35 35 35 39 39 42 42 42 42 42 42 42 42 42 42 29 29 29 29 29 29 29 29 29 45 45 45 45 45 45 45 45 45 14 12 12 12 12 12 12 12 12 12 41 41 41 41 41 41 41 41 41 41 41 41 41 21 21 21 21 21 21 21 21 21 21 21 21 21 21 21 21 21 21 21 21 21 29 29 29 29 29 29 29 29 29 29 6 25 25 25 25 25 25 25 25 25 25 25 25 50 50 50 50 50 50 50 50 50 50 50 48 48 48 48 48 48 48 48 48 48 48 48 48 48 40 40 46 7 7 7 7 7 7 7 7 7 7 7 7 34 34 34 34 30 30 30 30 30 30 43 43 43 43 40 40 40 40 40 40 40 40 40 40 26 26 26 26 26 26 26 26 26 42 42 42 42 42 42 42 42 42 42 42 42 42 42 15 15 15 15 15 15 15 15 35 35 35 35 35 35 35 39 39 42 42 42 42 42 42 42 42 42 42 42 42 29 29 29 29 25 25 25 45 45 45 45 45 45 45 45 14 14 14 12 12 12 12 12 12 12 12 12 41 41 41 41 41 41 41 41 41 41 41 41 21 21 21 21 21 21 21 21 21 21 21 21 21 21 21 21 21 21 21 21 21 21 21 21 29 29 29 29 29 29 29 25 25 25 25 25 25 25 25 25 25 25 25 25 50 50 50 50 50 50 50 50 50 50 50 50 50 48 48 48 48 48 48 48 48 48 40 40 40 40 40 40 7 7 7 7 7 7 7 7 7 7 7 7 34 34 34 34 34 30 30 30 30 30 43 43 43 40 40 40 40 40 40 40 40 40 40 40 26 26 26 26 26 26 26 26 26 42 42 42 42 42 42 42 42 42 42 42 42 42 15 15 15 15 15 15 15 15 15 35 35 35 35 35 35 35 35 39 42 42 42 42 42 42 42 42 42 42 42 42 48 25 25 25 25 25 25 25 45 45 45 45 45 45 14 14 14 14 14 12 12 12 12 12 12 12 12 12 41 41 41 41 41 41 41 41 41 41 41 21 21 21 21 21 21 21 21 21 21 21 21 21 21 21 21 21 21 21 21 21 21 21 21 21 21 21 29 29 29 29 25 25 25 25 25 25 25 25 25 25 25 25 50 50 50 50 50 50 50 50 50 50 50 50 50 50 31 48 48 48 48 48 48 40 40 40 40 40 40 40 40 7 7 7 7 7 7 7 7 7 7 7 7 34 34 34 34 34 34 30 30 30 30 43 43 43 40 40 40 40 40 40 40 40 40 40 40 26 26 26 26 26 26 26 26 26 42 42 42 42 42 42 42 42 42 42 42 42 42 15 15 15 15 15 15 15 15 15 35 35 35 35 35 35 35 35 39 42 42 42 42 42 42 42 42 42 42 42 42 48 48 25 25 25 25 25 25 45 45 45 45 45 14 14 14 14 14 14 12 12 12 12 12 12 12 12 12 41 41 41 41 41 41 41 41 41 41 41 21 21 21 21 21 21 21 21 21 21 21 21 21 21 21 21 21 21 21 21 21 21 21 21 21 21 21 21 21 21 29 25 25 25 25 25 25 25 25 25 9 9 9 50 50 50 50 50 50 50 50 50 50 50 50 50 50 31 31 31 48 40 40 40 40 40 40 40 40 40 40 40 7 7 7 7 7 7 7 7 7 7 7 7 34 34 34 34 34 34 30 30 30 30 43 43 40 40 40 40 40 40 40 40 40 40 40 40 40 26 26 26 26 26 26 26 26 26 42 42 42 42 42 42 42 42 42 42 42 15 15 15 15 15 15 15 15 15 15 15 35 35 35 35 35 35 35 39 42 42 42 42 42 42 42 42 42 42 42 42 48 48 25 25 25 25 25 25 45 45 45 45 14 14 14 14 14 14 14 14 12 12 12 12 12 12 12 12 12 41 41 41 41 41 41 41 41 41 41 21 21 21 21 21 21 21 21 21 21 21 21 21 21 21 21 21 21 21 21 21 21 21 21 21 21 21 21 21 21 21 25 25 25 25 25 25 9 9 9 9 9 9 50 50 50 50 50 50 50 50 50 50 50 50 50 50 31 31 31 40 40 40 40 40 40 40 40 40 40 40 40 7 7 7 7 7 7 7 7 7 7 7 7 34 34 34 34 34 34 34 30 30 30 43 40 40 40 40 40 40 40 40 40 40 40 40 40 40 26 26 26 26 26 26 26 26 26 42 42 42 42 42 42 42 42 42 42 15 15 15 15 15 15 15 15 15 15 15 15 35 35 35 35 35 35 35 39 42 42 42 42 42 42 42 42 42 42 42 48 48 48 48 25 25 25 25 25 25 45 45 14 14 14 14 14 14 14 14 14 14 12 12 12 12 12 12 12 12 12 41 41 41 41 41 41 41 41 41 21 21 21 21 21 21 21 21 21 21 21 21 21 21 21 21 21 21 21 21 21 21 21 21 21 21 21 21 21 21 21 25 25 9 9 9 9 9 9 9 9 3 3 3 50 50 50 50 50 50 50 50 50 50 50 50 50 31 31 31 31 40 40 40 40 40 40 40 40 40 40 40 7 7 7 7 7 7 7 7 7 7 7 7 34 34 34 34 34 34 34 34 30 30 40 40 40 40 40 40 40 40 40 40 40 40 40 40 40 26 26 26 26 26 26 26 26 17 17 17 42 12 12 12 12 12 12 12 15 15 15 15 15 15 15 15 15 15 15 15 35 35 35 35 35 35 35 35 42 42 42 42 42 42 42 42 42 42 42 48 48 48 48 25 25 25 25 25 25 45 14 14 14 14 14 14 14 14 14 14 14 12 12 12 12 12 12 12 12 12 12 45 45 45 45 45 45 45 45 21 21 21 21 21 21 21 21 21 21 21 21 21 21 21 21 21 21 21 21 21 21 21 21 21 21 21 21 21 21 21 9 9 9 9 9 9 9 9 3 3 3 3 3 3 50 50 50 50 50 50 50 50 50 50 50 50 31 31 31 31 40 40 40 40 40 40 40 40 40 40 40 40 7 7 7 7 7 7 7 7 7 7 7 34 34 34 34 34 34 34 22 22 30 40 40 40 40 40 40 40 40 40 40 40 40 40 40 40 26 26 26 26 26 26 26 17 17 17 17 12 12 12 12 12 12 12 12 15 15 15 15 15 15 15 15 15 15 15 15 15 35 35 35 35 35 35 35 42 42 42 42 42 42 42 42 42 42 42 48 48 48 48 25 25 25 25 25 25 25 14 14 14 14 14 14 14 14 14 14 14 14 12 12 12 12 12 12 12 12 45 45 45 45 45 45 45 45 45 21 21 21 21 21 21 21 21 21 21 21 21 21 21 21 21 21 21 21 21 21 21 21 21 21 21 21 21 21 21 21 9 9 9 9 9 9 3 3 3 3 3 3 3 3 3 50 50 50 50 50 50 50 50 50 50 31 31 31 31 31 40 40 40 40 40 40 40 40 40 40 40 40 7 7 7 7 7 7 7 7 7 7 7 34 34 34 34 22 22 22 22 22 22 40 40 40 40 40 40 40 40 40 40 40 40 40 40 40 26 26 26 26 26 17 17 17 17 17 17 12 12 12 12 12 12 12 15 15 15 15 15 15 15 15 15 15 15 15 15 15 35 35 35 35 35 35 35 42 42 42 42 42 42 42 42 42 42 48 48 48 48 48 48 25 25 25 25 25 25 14 14 14 14 14 14 14 14 14 14 14 14 14 12 12 12 12 12 12 12 45 45 45 45 45 45 45 45 45 21 21 21 21 21 21 21 21 21 21 21 21 21 21 21 21 21 21 21 21 21 21 21 21 21 21 21 21 21 21 21 9 9 9 9 3 3 3 3 3 3 3 3 3 3 3 3 50 50 50 50 50 50 50 50 50 31 31 31 31 31 31 40 40 40 40 40 40 40 40 40 40 40 7 7 7 7 7 7 7 7 7 7 7 22 22 22 22 22 22 22 22 22 22 40 40 40 40 40 40 40 40 40 40 40 40 40 40 40 40 26 26 26 17 17 17 17 17 17 17 12 12 12 12 12 12 12 15 15 15 15 15 15 15 15 15 15 15 15 15 15 35 35 35 35 35 35 35 42 42 42 42 42 42 42 42 42 42 48 48 48 48 48 48 25 25 25 25 25 25 14 14 14 14 14 14 14 14 14 14 14 14 14 12 12 12 12 12 12 45 45 45 45 45 45 45 45 45 38 21 21 21 21 21 21 37 37 37 37 21 21 21 21 21 21 21 21 21 21 21 21 21 21 21 21 21 21 21 21 9 9 9 3 3 3 3 3 3 3 3 3 3 3 3 3 3 3 50 50 50 50 50 50 50 50 31 31 31 31 31 31 40 40 40 40 40 40 40 40 40 40 40 7 7 7 7 7 7 7 7 7 7 22 22 22 22 22 22 22 22 22 22 22 22 40 40 40 40 40 40 40 40 40 40 40 40 40 40 40 26 26 17 17 17 17 17 17 17 17 12 12 12 12 12 12 12 15 15 15 15 15 15 15 15 15 15 15 15 15 15 35 35 35 35 35 35 35 42 42 42 42 42 42 42 42 42 42 48 48 48 48 48 48 25 25 25 25 25 25 25 14 14 14 14 14 14 14 14 14 14 14 14 14 12 12 12 12 12 45 45 45 45 45 45 45 45 45 38 21 21 21 37 37 37 37 37 37 37 37 21 21 21 21 21 21 21 21 21 21 21 21 21 21 21 21 21 21 21 9 3 3 3 3 3 3 3 3 3 3 3 3 3 3 3 3 3 3 50 50 50 50 50 50 50 31 31 31 31 31 31 40 40 40 40 40 40 40 40 40 40 40 7 7 7 7 7 7 7 7 7 22 22 22 22 22 22 22 22 22 22 22 22 22 40 40 40 40 40 40 40 40 40 40 40 40 40 40 40 17 17 17 17 17 17 17 17 17 17 12 12 12 12 12 12 12 15 15 15 15 15 15 15 15 15 15 15 15 15 15 15 35 35 35 35 35 35 42 42 42 42 42 42 42 42 42 48 48 48 48 48 48 48 48 25 25 25 25 25 25 14 14 14 14 14 14 14 14 14 14 14 14 14 14 12 12 12 45 45 45 45 45 45 45 45 45 45 38 37 37 37 37 37 37 37 37 37 37 37 37 21 21 21 21 21 21 21 21 21 21 21 21 21 21 21 21 21 21 3 3 3 3 3 3 3 3 3 3 3 3 3 3 3 3 3 3 3 3 50 50 50 50 50 50 31 31 31 31 31 31 31 40 40 40 40 40 40 40 40 40 40 7 7 7 7 7 7 7 7 22 22 22 22 22 22 22 22 22 22 22 22 22 22 22 40 40 40 40 40 40 40 40 40 40 40 40 40 40 17 17 17 17 17 17 17 17 17 17 12 12 12 12 12 12 15 15 15 15 15 15 15 15 15 15 15 15 15 15 15 15 35 35 35 35 35 35 42 42 42 42 42 42 42 42 42 48 48 48 48 48 48 48 48 25 25 25 25 25 25 14 14 14 14 14 14 14 14 14 14 14 14 14 14 12 12 12 45 45 45 45 45 45 45 45 45 45 38 