# vtk DataFile Version 3.0
vtk output
ASCII
DATASET STRUCTURED_POINTS
DIMENSIONS 199 45 33
ORIGIN 0.0005025 -5.5e-05 -8e-05
SPACING 2.5e-06 2.5e-06 2.5e-06
POINT_DATA 295515
SCALARS GrainID int 1
LOOKUP_TABLE default
127 127 127 127 127 127 127 127 127 127 127 124 124 124 124 124 124 161 161 161 161 161 161 161 161 161 161 161 7 86 86 86 86 86 86 86 86 86 86 86 86 86 86 86 86 86 86 86 180 180 180 180 180 180 180 180 180 180 180 180 180 180 180 180 180 180 180 180 120 120 120 120 120 100 100 100 100 100 100 100 100 100 37 37 37 37 37 37 37 37 37 37 37 118 118 118 118 118 118 118 118 159 159 159 159 159 159 152 152 152 152 152 75 75 75 75 75 75 75 75 75 75 75 75 75 75 75 75 75 43 33 33 33 33 33 4 4 4 4 4 4 4 4 4 4 4 4 4 4 4 4 4 4 4 4 199 199 199 199 199 199 199 199 199 199 199 199 199 199 199 199 209 209 209 209 209 209 209 209 209 209 209 209 209 209 209 209 209 209 119 119 119 119 119 119 119 119 119 119 127 127 127 127 127 127 127 127 127 127 127 124 124 124 124 124 161 161 161 161 161 161 161 161 161 161 161 161 161 86 86 86 86 86 86 86 86 86 86 86 86 86 86 86 86 86 86 86 180 180 180 180 180 180 180 180 180 180 180 180 180 180 180 180 180 180 180 180 120 120 120 120 120 100 100 100 100 100 100 100 100 100 100 37 37 37 37 37 37 37 37 37 37 118 118 118 118 118 118 118 159 159 159 159 159 159 159 152 152 152 152 152 75 75 75 75 75 75 75 75 75 75 75 75 75 75 75 75 43 43 33 33 33 33 33 33 33 33 4 4 4 4 4 4 4 4 4 4 4 4 4 4 4 4 4 199 199 199 199 199 199 199 199 199 199 199 199 199 199 199 199 209 209 209 209 209 209 209 209 209 209 209 209 209 209 209 209 209 209 119 119 119 119 119 119 119 119 119 119 127 127 127 127 127 127 127 127 127 127 127 124 124 124 124 124 161 161 161 161 161 161 161 161 161 161 161 161 161 86 86 86 86 86 86 86 86 86 86 86 86 86 86 86 86 86 86 86 180 180 180 180 180 180 180 180 180 180 180 180 180 180 180 180 180 180 180 180 120 120 120 120 120 100 100 100 100 100 100 100 100 100 100 37 37 37 37 37 37 37 37 37 118 118 118 118 118 118 118 159 159 159 159 159 159 159 159 152 152 152 152 152 75 75 75 75 75 75 75 75 75 75 75 75 75 75 75 75 43 43 33 33 33 33 33 33 33 33 33 33 4 4 4 4 4 4 4 4 4 4 4 4 4 4 199 199 199 199 199 199 199 199 199 199 199 199 199 199 199 199 199 199 209 209 209 209 209 209 209 209 209 209 209 209 209 209 209 209 209 119 119 119 119 119 119 119 119 119 119 127 127 127 127 127 127 127 127 127 127 127 124 124 124 124 161 161 161 161 161 161 161 161 161 161 161 161 161 161 86 86 86 86 86 86 86 86 86 86 86 86 86 86 86 86 86 86 86 180 180 180 180 180 180 180 180 180 180 180 180 180 180 180 180 180 180 180 180 120 120 120 120 120 100 100 100 100 100 100 100 100 100 100 100 37 37 37 37 37 37 37 37 118 118 118 118 118 118 159 159 159 159 159 159 159 159 159 159 152 152 152 152 75 75 75 75 75 75 75 75 75 75 75 75 75 75 75 43 43 33 33 33 33 33 33 33 33 33 33 33 33 33 4 4 4 4 4 4 4 4 4 4 4 4 199 199 199 199 199 199 199 199 199 199 199 199 199 199 199 199 199 199 209 209 209 209 209 209 209 209 209 209 209 209 209 209 209 209 209 119 119 119 119 119 119 119 119 119 119 127 127 127 127 127 127 127 127 127 127 127 12 12 12 12 161 161 161 161 161 161 161 161 161 161 161 161 161 161 86 86 86 86 86 86 86 86 86 86 86 86 86 86 86 86 86 86 86 180 180 180 180 180 180 180 180 180 180 180 180 180 180 180 180 180 180 180 120 120 120 120 120 120 100 100 100 100 100 100 100 100 100 100 100 100 37 37 37 37 37 37 37 118 118 118 118 118 159 159 159 159 159 159 159 159 159 159 159 152 152 152 152 75 75 75 75 75 75 75 75 75 75 75 75 75 75 75 43 191 33 33 33 33 33 33 33 33 33 33 33 33 33 33 33 4 4 4 4 4 4 4 35 35 35 199 199 199 199 199 199 199 199 199 199 199 199 199 199 199 199 199 199 209 209 209 209 209 209 209 209 209 209 209 209 209 209 209 209 209 119 119 119 119 119 119 119 119 119 119 127 127 127 127 127 127 127 127 127 127 127 12 12 12 12 161 161 161 161 161 161 161 161 161 161 161 161 161 161 161 86 86 86 86 86 86 86 86 86 86 86 86 86 86 86 86 86 86 180 180 180 180 180 180 180 180 180 180 180 180 180 180 180 180 180 180 180 120 120 120 120 120 120 100 100 100 100 100 100 100 100 100 100 100 100 37 37 37 37 37 37 118 118 118 118 118 159 159 159 159 159 159 159 159 159 159 159 159 152 152 152 152 75 75 75 75 75 75 75 75 75 75 75 75 75 75 191 191 191 191 33 33 33 33 33 33 33 33 33 33 33 33 33 33 33 33 33 4 35 35 35 35 35 35 199 199 199 199 199 199 199 199 199 199 199 199 199 199 199 199 199 199 209 209 209 209 209 209 209 209 209 209 209 209 209 209 209 209 209 119 119 119 119 119 119 119 119 119 119 127 127 127 127 127 127 127 127 127 127 181 181 181 181 181 161 161 161 161 161 161 161 161 161 161 161 161 161 161 161 86 86 86 86 86 86 86 86 86 86 86 86 86 86 86 86 86 86 86 180 180 180 180 180 180 180 180 180 180 180 180 180 180 180 180 180 180 120 120 120 120 120 120 100 100 100 100 100 100 100 100 100 100 100 100 100 37 37 37 37 37 118 118 118 118 159 159 159 159 159 159 159 159 159 159 159 159 159 152 152 152 75 75 75 75 75 75 75 75 75 75 75 75 75 191 191 191 191 191 191 33 33 33 33 33 33 33 33 33 33 33 33 33 33 33 33 33 35 35 35 35 35 35 35 199 199 199 199 199 199 199 199 199 199 199 199 199 199 199 199 199 199 199 209 209 209 209 209 209 209 209 209 209 209 209 209 209 209 209 119 119 119 119 119 119 119 119 119 119 127 127 127 127 127 127 127 127 127 127 181 181 181 181 181 181 161 161 161 161 161 161 161 161 161 161 161 161 161 161 86 86 86 86 86 86 86 86 86 86 86 86 86 86 86 86 86 86 86 180 180 180 180 180 180 180 180 180 180 180 180 180 180 180 180 180 180 120 120 120 120 120 120 100 100 100 100 100 100 100 100 100 100 100 100 100 23 23 23 37 118 118 118 118 159 159 159 159 159 159 159 159 159 159 159 159 159 159 159 152 152 75 75 75 75 75 75 75 75 75 75 75 191 191 191 191 191 191 191 191 191 33 33 33 33 33 33 33 33 33 33 33 33 33 33 33 33 35 35 35 35 35 35 35 35 199 199 199 199 199 199 199 199 199 199 199 199 199 199 199 199 199 199 209 209 209 209 209 209 209 209 209 209 209 209 209 209 209 209 119 119 119 119 119 119 119 119 119 119 127 127 127 127 127 127 127 127 127 181 181 181 181 181 181 181 161 161 161 161 161 161 161 161 161 161 161 161 161 161 86 86 86 86 86 86 86 86 86 86 86 86 86 86 86 86 86 86 32 121 180 180 180 180 180 180 180 180 180 180 180 180 180 180 180 180 180 89 89 120 120 120 120 100 100 100 100 100 100 100 100 100 100 100 100 23 23 23 23 23 23 118 118 159 159 159 159 159 159 159 159 159 159 159 159 159 159 159 159 164 164 164 164 164 164 164 164 164 164 164 164 191 191 191 191 191 191 191 191 191 191 33 33 33 33 33 33 33 33 33 33 33 33 33 33 33 35 35 35 35 35 35 35 35 35 199 199 199 199 199 199 199 199 199 199 199 199 199 199 199 199 199 199 209 209 209 209 209 209 209 209 209 209 209 209 209 209 110 110 110 119 119 119 119 119 119 119 119 119 127 127 127 127 127 127 127 127 181 181 181 181 181 181 181 181 181 161 161 161 161 161 161 161 161 161 161 161 161 161 86 86 86 86 86 86 86 86 86 86 86 86 86 86 86 86 86 32 32 121 121 121 180 180 180 180 180 180 180 180 180 180 180 180 180 180 89 89 89 89 89 89 89 100 100 100 100 100 100 100 100 100 100 100 23 23 23 23 23 23 23 23 159 159 159 159 159 159 159 159 159 159 159 159 159 159 159 159 159 164 164 164 164 164 164 164 164 164 164 164 164 191 191 191 191 191 191 191 191 191 191 33 33 33 33 33 33 33 33 33 33 33 33 33 33 33 35 35 35 35 35 35 35 35 35 199 199 199 199 199 199 199 199 199 199 199 199 199 199 199 199 199 199 199 209 209 209 209 209 209 209 209 209 209 209 209 110 110 110 110 110 110 119 119 119 119 119 119 119 127 127 127 127 127 39 39 181 181 181 181 181 181 181 181 181 181 181 161 161 161 161 161 161 161 161 161 161 161 161 86 86 86 86 86 86 86 86 86 86 86 86 86 86 86 32 32 32 121 121 121 121 121 121 180 180 180 180 180 180 180 180 180 180 180 180 89 89 89 89 89 89 89 89 100 100 100 100 100 100 100 100 100 100 23 23 23 23 23 23 23 23 23 159 159 159 159 159 159 159 159 159 159 159 159 159 159 90 164 164 164 164 164 164 164 164 164 164 164 164 164 191 191 191 191 191 191 191 191 191 191 191 33 33 33 33 33 33 33 33 33 33 33 33 33 35 35 35 35 35 35 35 35 35 35 199 199 199 199 199 199 199 199 199 199 199 199 199 199 199 199 199 199 199 209 209 209 209 209 209 209 209 209 209 110 110 110 110 110 110 110 110 110 19 119 119 119 119 119 39 39 39 39 39 39 39 181 181 181 181 181 181 181 181 181 181 181 161 161 161 161 161 161 161 161 161 161 161 161 161 86 86 86 86 86 86 86 86 86 86 86 86 86 168 32 32 32 121 121 121 121 121 121 121 121 180 180 180 180 180 180 180 1 1 1 89 89 89 89 89 89 89 89 89 100 100 100 100 100 100 100 139 139 23 23 23 23 23 23 23 23 23 159 159 159 159 159 159 159 159 159 159 159 159 159 90 106 164 164 164 164 164 164 164 164 164 164 164 164 164 191 191 191 191 191 191 191 191 191 191 191 33 33 33 33 33 33 33 33 33 33 33 33 33 35 35 35 35 35 35 35 35 35 35 35 199 199 199 199 199 199 199 199 199 199 199 199 199 199 199 199 199 202 202 209 209 209 148 148 148 148 148 148 110 110 110 110 110 110 110 110 110 19 19 19 19 19 19 39 39 39 39 39 39 39 181 181 181 181 181 181 181 181 181 181 181 181 161 161 161 161 161 161 161 161 161 161 161 161 86 86 86 86 86 86 86 86 86 86 86 168 168 168 32 32 32 121 121 121 121 121 121 121 121 121 121 180 1 1 1 1 1 1 1 1 89 89 89 89 89 89 89 89 100 100 100 100 100 100 139 139 139 23 23 23 23 23 23 23 23 23 23 159 159 159 159 159 159 159 159 159 159 159 106 106 106 106 164 164 164 164 164 164 164 164 164 164 164 164 191 191 191 191 191 191 191 191 191 191 191 33 33 33 33 33 33 33 33 33 33 33 33 33 35 35 35 35 35 35 35 35 35 35 35 199 199 199 199 199 199 199 199 199 199 199 199 199 199 199 202 202 202 202 148 148 148 148 148 148 148 148 148 110 110 110 110 110 110 110 110 110 19 19 19 19 19 19 39 39 39 39 39 39 39 181 181 181 181 181 181 181 181 181 181 181 181 161 161 161 161 161 161 161 161 161 161 161 161 86 86 86 86 86 86 86 86 86 168 168 168 168 168 32 32 32 121 121 121 121 121 121 121 121 121 121 1 1 1 1 1 1 1 1 1 89 89 89 89 89 89 89 89 89 100 100 100 139 139 139 139 139 139 23 23 23 23 23 23 23 23 23 53 159 159 159 159 159 159 159 159 106 106 106 106 106 106 164 164 164 164 164 164 164 164 164 164 164 164 191 191 191 191 191 191 191 191 191 191 191 191 33 33 33 33 33 33 33 33 33 33 33 35 35 35 35 35 35 35 35 35 35 35 35 199 199 199 199 199 199 199 199 199 199 199 199 199 202 202 202 202 202 202 148 148 148 148 148 148 148 148 148 110 110 110 110 110 110 110 110 110 19 19 19 19 19 19 39 39 39 39 39 39 181 181 181 181 181 181 181 181 181 181 181 181 181 181 161 161 161 161 161 161 161 161 161 161 214 214 86 86 86 86 86 86 168 168 168 168 168 168 168 32 32 32 121 121 121 121 121 121 121 121 121 121 1 1 1 1 1 1 1 1 1 1 89 89 89 89 89 89 89 89 100 100 139 139 139 139 139 139 139 23 23 23 23 23 23 23 23 53 53 53 53 53 53 159 159 159 106 106 106 106 106 106 106 164 164 164 164 164 164 164 164 164 164 164 164 191 191 191 191 191 191 191 191 191 191 191 191 33 33 33 33 33 33 33 33 33 33 33 35 35 35 35 35 35 35 35 35 35 35 35 199 199 199 199 199 199 199 199 199 199 199 199 202 202 202 202 202 202 202 148 148 148 148 148 148 148 148 148 110 110 110 110 110 110 110 110 110 19 19 19 19 19 19 39 39 39 39 39 39 181 181 181 181 181 181 181 181 181 181 181 181 181 181 181 161 161 161 161 161 161 161 161 161 214 214 214 86 86 86 168 168 168 168 168 168 168 168 168 32 32 32 121 121 121 121 121 121 121 121 121 121 1 1 1 1 1 1 1 1 1 1 77 89 89 89 89 89 89 89 89 139 139 139 139 139 139 139 139 23 23 23 23 23 23 23 66 66 66 53 53 53 53 53 53 106 106 106 106 106 106 106 106 164 164 164 164 164 164 164 164 164 164 192 200 191 191 191 191 191 191 191 191 191 191 191 191 33 33 33 33 33 33 33 33 33 33 33 35 35 35 35 35 35 35 35 35 35 35 35 35 199 199 199 199 199 199 199 199 199 202 202 202 202 202 202 202 202 202 148 148 148 148 148 148 148 148 148 110 110 110 110 110 110 110 110 110 19 19 19 19 19 19 39 39 39 39 39 39 181 181 181 181 181 181 181 181 181 181 181 181 181 181 181 181 161 161 161 161 161 161 161 214 214 214 214 214 168 168 168 168 168 168 168 168 168 168 144 144 32 121 121 121 121 121 121 121 121 121 121 121 1 1 1 1 1 1 1 1 1 1 77 77 77 89 89 89 89 89 139 139 139 139 139 139 139 139 139 23 23 23 23 23 66 66 66 66 66 66 53 53 53 53 53 53 106 106 106 106 106 106 106 164 164 164 164 164 164 164 192 192 192 192 200 200 200 191 191 191 191 191 191 191 191 191 191 191 33 33 33 33 33 33 33 33 33 35 35 35 35 35 35 35 35 35 35 35 35 35 35 199 199 199 199 199 199 199 202 202 202 202 202 202 202 202 202 202 202 148 148 148 148 148 148 148 148 148 110 110 110 110 110 110 110 110 110 19 19 19 19 19 19 39 39 39 39 39 181 181 181 181 181 181 181 181 181 181 181 181 181 181 181 181 181 161 161 161 161 161 161 214 214 214 214 214 48 168 168 168 168 168 168 168 168 168 144 144 144 144 144 121 121 121 121 121 121 121 121 121 121 1 1 1 1 1 1 1 1 1 1 77 77 77 77 77 89 89 89 139 139 139 139 139 139 139 139 139 139 23 23 23 66 66 66 66 66 66 66 66 53 53 53 53 53 106 106 106 106 106 106 106 164 164 164 164 192 192 192 192 192 192 192 200 200 200 200 191 191 191 191 191 191 191 191 191 140 33 33 33 33 33 33 33 33 33 35 35 35 35 35 35 35 35 35 35 35 35 35 184 184 184 184 184 184 184 184 202 202 202 202 202 202 202 202 202 202 202 148 148 148 148 148 148 148 148 148 148 110 110 110 110 110 110 110 110 19 19 19 19 19 19 129 129 129 129 129 181 181 181 181 181 181 181 181 181 181 181 181 181 181 181 181 181 181 161 161 161 161 161 214 48 48 48 48 48 48 168 168 168 168 168 168 144 144 144 144 144 144 144 121 121 121 121 121 121 121 121 121 121 1 1 1 1 1 1 1 1 1 166 77 77 77 77 77 77 77 89 139 139 139 139 139 139 139 139 139 139 107 107 107 66 66 66 66 66 66 66 66 66 53 53 53 53 106 106 106 106 106 106 106 164 192 192 192 192 192 192 192 192 192 200 200 200 200 200 200 191 191 191 191 191 140 140 140 140 140 33 33 33 33 33 33 33 35 35 35 35 35 35 35 35 35 35 35 35 35 184 184 184 184 184 184 184 184 184 184 202 202 202 202 202 202 202 202 202 202 148 148 148 148 148 148 148 148 148 148 110 110 110 110 110 110 110 110 19 19 19 19 19 19 129 129 129 129 129 129 181 181 181 181 181 181 181 181 181 181 181 181 181 181 181 181 181 181 161 161 161 48 48 48 48 48 48 48 48 48 168 168 168 168 144 144 144 144 144 144 144 144 121 121 121 121 121 121 121 121 121 121 1 1 1 1 1 1 1 1 166 166 166 166 166 77 77 157 157 157 157 139 139 139 139 139 139 139 29 29 29 107 66 66 66 66 66 66 66 66 66 66 66 53 53 53 53 106 106 106 106 106 106 192 192 192 192 192 192 192 192 192 192 200 200 200 200 200 200 200 200 140 140 140 140 140 140 140 140 140 140 33 33 33 33 33 35 35 35 35 35 35 35 35 35 35 35 35 184 184 184 184 184 184 184 184 184 184 184 184 202 202 202 202 202 202 202 202 202 148 148 148 148 148 148 148 148 148 148 110 110 110 110 110 110 110 110 19 19 19 19 19 19 129 129 129 129 129 129 129 181 181 181 181 181 181 181 181 181 181 181 181 181 181 181 181 126 126 48 48 48 48 48 48 48 48 48 48 48 48 168 144 144 144 144 144 144 144 144 144 144 121 121 121 121 121 121 121 121 121 121 1 1 1 1 1 1 166 166 166 166 166 166 166 166 157 157 157 157 157 34 139 139 139 29 29 29 29 29 29 29 66 66 66 66 66 66 66 66 66 66 66 66 53 53 53 106 106 106 106 106 106 192 192 192 192 192 192 192 192 192 192 200 200 200 200 200 200 200 140 140 140 140 140 140 140 140 140 140 17 17 17 17 17 17 35 35 35 35 35 35 35 35 35 35 35 35 184 184 184 184 184 184 184 184 184 184 184 184 184 202 202 202 202 202 202 202 202 148 148 148 148 148 148 148 148 148 148 110 110 110 110 110 110 110 110 19 19 19 19 19 19 129 129 129 129 129 129 129 129 181 181 181 181 181 181 181 181 181 181 181 181 181 181 126 126 126 48 48 48 48 48 48 48 48 48 48 48 48 144 144 144 144 144 144 144 144 144 144 144 144 121 121 121 121 121 121 121 208 208 208 208 1 1 166 166 166 166 166 166 166 166 166 166 157 157 157 157 157 34 34 34 29 29 29 29 29 29 29 29 66 66 66 66 66 66 66 66 66 66 66 66 53 53 53 106 106 106 106 106 106 192 192 192 192 192 192 192 192 192 200 200 200 200 200 200 200 140 140 140 140 140 140 140 140 140 140 140 17 17 17 17 17 17 17 35 35 35 35 35 35 35 35 35 35 184 184 184 184 184 184 184 184 184 184 184 184 184 184 184 202 202 202 202 202 202 64 64 148 148 148 148 148 148 148 148 148 110 110 110 110 110 110 110 110 19 19 19 19 19 19 129 129 129 129 129 129 129 129 129 181 181 181 181 181 181 181 181 181 181 181 46 46 46 46 46 48 48 48 48 48 48 48 48 48 48 48 48 48 144 144 144 144 144 144 144 144 144 144 144 121 121 121 121 121 208 208 208 208 208 208 208 208 166 166 166 166 166 166 166 166 166 157 157 157 157 157 157 34 34 34 34 29 29 29 29 29 29 29 29 66 66 66 66 66 66 66 66 66 66 66 66 66 53 53 106 106 106 106 192 192 192 192 192 192 192 192 192 192 200 200 200 200 200 200 140 140 140 140 140 140 140 140 140 140 140 140 17 17 17 17 17 17 17 17 17 35 35 35 35 35 35 35 184 184 184 184 184 184 184 184 184 184 184 184 184 184 184 184 184 202 202 202 202 64 64 64 64 64 148 148 148 148 148 148 148 110 110 110 110 110 110 110 110 19 19 19 19 19 19 129 129 129 129 129 129 129 129 129 181 181 181 181 181 181 181 181 181 46 46 46 46 46 46 46 46 48 48 48 48 48 48 48 48 48 48 48 48 144 144 144 144 144 144 144 144 144 144 144 121 121 121 208 208 208 208 208 208 208 208 208 208 166 166 166 166 166 166 166 166 166 157 157 157 157 157 34 34 34 34 34 34 29 29 29 29 29 29 29 66 66 66 66 66 66 66 66 66 66 66 66 66 66 185 185 185 185 106 192 192 192 192 192 192 192 192 192 114 200 200 200 200 200 140 140 140 140 140 140 140 140 140 140 140 140 17 17 17 17 17 17 17 17 17 17 17 35 35 35 35 35 184 184 184 184 184 184 184 184 184 184 184 184 184 184 184 184 184 184 184 202 202 64 64 64 64 64 64 64 64 148 148 148 148 148 148 110 110 110 110 110 110 110 19 19 19 19 19 19 129 129 129 129 129 129 129 129 154 154 154 181 181 181 181 46 46 46 46 46 46 46 46 46 46 46 48 48 48 48 48 48 48 48 48 48 48 48 48 144 144 144 144 144 144 144 144 144 144 144 121 208 208 208 208 208 208 208 208 208 208 208 166 166 166 166 166 166 166 166 166 157 157 157 157 157 34 34 34 34 34 34 29 29 29 29 29 29 29 66 66 66 66 66 66 66 66 66 66 66 66 66 66 185 185 185 185 185 192 192 192 114 114 114 114 114 114 114 114 114 200 200 140 140 140 140 140 140 140 140 140 140 140 140 140 17 17 17 17 17 17 17 17 17 17 17 17 17 35 35 184 184 184 184 184 184 184 184 184 184 184 184 184 184 184 184 184 184 184 184 184 64 64 64 64 64 64 64 64 64 64 64 148 148 148 148 110 110 110 110 110 110 110 19 19 19 19 19 19 129 129 129 129 129 129 129 154 154 154 154 154 154 46 46 46 46 46 46 46 46 46 46 46 46 46 46 48 48 48 48 48 48 48 48 48 48 48 48 144 144 144 144 144 144 144 144 144 144 208 208 208 208 208 208 208 208 208 208 208 208 208 166 166 166 166 166 166 166 166 166 157 157 157 157 34 34 34 34 34 34 34 34 29 29 29 29 29 29 45 45 45 66 66 66 66 66 66 66 66 66 66 66 185 185 185 185 185 203 203 114 114 114 114 114 114 114 114 114 114 114 114 140 140 140 140 140 140 140 140 140 140 140 140 140 17 17 17 17 17 17 17 17 17 17 17 17 17 17 184 184 184 184 184 184 184 184 184 184 184 184 184 184 184 184 184 184 184 184 184 184 64 64 64 64 64 64 64 64 64 64 64 64 64 148 148 110 110 110 110 110 110 110 19 19 19 19 19 19 129 129 129 129 129 154 154 154 154 154 154 154 154 46 46 46 46 46 46 46 46 46 46 46 46 46 46 48 48 48 48 48 48 48 48 48 48 48 48 144 144 144 144 144 144 144 144 144 144 208 208 208 208 208 208 208 208 208 208 208 208 9 9 9 166 166 166 166 166 166 157 157 157 157 157 34 34 34 34 34 34 34 34 34 29 29 29 29 45 45 45 45 45 45 131 131 131 131 131 131 131 131 131 131 13 13 13 203 203 203 203 203 114 114 114 114 114 114 103 103 103 103 103 140 140 140 140 140 140 140 140 140 140 140 17 17 17 17 17 17 17 17 17 17 17 17 17 17 17 216 184 184 184 184 184 184 184 184 184 184 184 184 184 184 184 184 184 184 184 184 184 64 64 64 64 64 64 64 64 64 64 64 64 64 67 67 67 67 67 67 110 110 110 19 19 19 19 19 19 129 129 129 129 154 154 154 154 154 154 154 154 154 46 46 46 46 46 46 46 46 46 46 46 46 46 46 46 48 48 48 48 48 48 48 48 48 48 48 81 81 144 144 144 144 144 144 144 208 208 208 208 208 208 208 208 208 208 208 208 208 9 9 9 9 166 166 166 166 166 157 157 157 157 157 34 34 34 34 34 34 34 34 34 34 29 29 45 45 45 45 45 45 45 131 131 131 131 131 131 131 131 131 13 13 13 13 203 203 203 203 203 203 203 114 103 103 103 103 103 103 103 103 103 140 140 140 140 140 140 140 140 140 140 17 17 17 17 17 17 17 17 17 17 17 17 17 17 216 216 216 184 184 184 184 184 184 184 184 184 184 184 184 184 184 184 184 184 184 184 184 64 64 64 64 64 64 64 64 64 64 64 64 64 67 67 67 67 67 67 67 67 67 19 19 19 19 19 19 129 129 129 154 154 154 154 154 154 154 154 154 154 46 46 46 46 46 46 46 46 46 46 46 46 46 46 46 48 48 48 48 48 48 48 48 48 48 81 81 81 81 81 81 144 144 144 144 208 208 208 208 208 208 208 208 208 208 208 208 9 9 9 9 9 9 166 166 166 166 157 157 157 157 34 34 34 34 34 34 34 34 34 34 34 34 45 45 45 45 45 45 45 45 131 131 131 131 131 131 131 131 13 13 13 13 13 203 203 203 203 203 203 203 103 103 103 103 103 103 103 103 103 103 103 140 140 140 140 140 140 140 140 17 17 17 17 17 17 17 17 17 17 17 17 17 17 134 216 216 216 216 216 184 184 184 184 184 184 184 184 184 184 184 184 184 184 184 184 184 184 18 18 64 64 64 64 64 64 64 64 64 64 67 67 67 67 67 67 67 67 67 67 67 67 19 19 19 19 129 129 154 154 154 154 154 154 154 154 154 154 154 46 46 46 46 46 46 46 46 46 46 46 46 46 46 46 46 48 48 48 48 48 48 48 48 81 81 81 81 81 81 81 81 81 81 208 208 208 208 208 208 208 208 208 208 208 208 208 9 9 9 9 9 9 9 9 166 166 157 157 157 157 34 34 34 34 34 34 34 34 34 34 34 34 45 45 45 45 45 45 45 45 131 131 131 131 131 131 131 13 13 13 13 13 13 203 203 203 203 203 203 203 203 103 103 103 103 103 103 103 103 103 103 103 103 140 140 140 140 140 140 17 17 17 17 17 17 17 17 17 17 17 17 17 134 134 216 216 216 216 216 216 184 184 184 184 184 184 184 184 184 184 184 184 184 184 184 184 18 18 18 18 64 64 64 64 64 64 41 41 41 41 67 67 67 67 67 67 67 67 67 67 67 67 19 19 19 154 154 154 154 154 154 154 154 154 154 154 154 154 46 46 46 46 46 46 46 46 46 46 46 46 46 46 46 46 48 48 48 48 48 48 48 81 81 81 81 81 81 81 81 81 81 24 24 24 208 208 208 208 208 208 208 208 208 208 9 9 9 9 9 9 9 9 9 9 157 157 157 157 157 34 34 34 34 34 34 34 34 34 34 34 173 45 45 45 45 45 45 45 45 131 131 131 131 131 131 13 13 13 13 13 13 13 13 203 203 203 203 203 203 203 103 103 103 103 103 103 103 103 103 103 103 103 103 140 140 140 140 140 17 17 17 17 17 17 17 17 17 17 17 132 134 134 134 216 216 216 216 216 216 216 216 184 184 184 184 184 184 184 184 184 184 184 184 184 18 18 18 18 18 18 18 41 41 41 41 41 41 41 41 41 67 67 67 67 67 67 67 67 67 67 67 67 19 19 154 154 154 154 154 154 154 154 154 154 154 154 186 186 186 46 46 46 46 46 46 46 46 46 46 46 46 46 46 46 48 48 48 48 48 81 81 81 81 81 81 81 81 81 81 81 24 24 24 24 24 208 208 208 208 208 208 208 208 9 9 9 9 9 9 9 9 9 9 9 157 157 157 34 34 34 34 34 34 34 34 34 34 34 173 173 173 45 45 45 45 45 45 45 131 131 131 131 131 131 13 13 13 13 13 13 13 13 203 203 203 203 203 203 203 203 103 103 103 103 103 103 103 103 103 103 103 103 103 140 140 140 17 17 17 17 17 17 17 17 17 17 132 132 132 132 134 134 216 216 216 216 216 216 216 216 216 184 184 184 184 184 184 184 184 184 184 184 18 18 18 18 18 18 18 18 18 41 41 41 41 41 41 41 41 67 67 67 67 67 67 67 67 67 67 67 67 67 67 154 154 154 154 154 154 154 154 154 154 154 154 186 186 186 186 186 186 46 46 46 46 46 46 46 46 46 46 46 46 48 48 48 48 81 81 81 81 81 81 81 81 81 81 81 24 24 24 24 24 24 24 24 208 208 208 208 208 9 9 9 9 9 9 9 9 9 9 9 9 157 157 157 34 34 34 34 34 34 25 25 25 25 25 173 173 173 45 45 45 45 45 45 45 131 131 131 131 131 13 13 13 13 13 13 13 13 13 203 203 203 203 203 203 203 203 103 103 103 103 103 103 103 103 103 103 103 103 103 103 140 140 17 17 17 17 17 17 17 17 132 132 132 132 132 132 134 134 216 216 216 216 216 216 216 216 216 216 184 184 184 184 184 184 184 184 184 18 18 18 18 18 18 18 18 18 44 41 41 41 41 41 41 41 41 41 67 67 67 67 67 67 67 67 67 67 67 67 67 154 154 154 154 154 154 154 154 154 154 154 154 186 186 186 186 186 186 186 186 186 46 46 46 46 46 46 46 46 46 46 48 81 81 81 81 81 81 81 81 81 81 81 81 24 24 24 24 24 24 24 24 24 24 24 208 208 208 9 9 9 9 9 9 9 9 9 9 9 30 30 157 25 25 25 25 25 25 25 25 25 25 25 25 173 173 173 173 45 45 45 45 45 45 131 131 131 131 13 13 13 13 13 13 13 13 13 13 203 203 203 203 203 203 203 203 203 103 103 103 103 103 103 103 103 103 103 103 103 103 103 145 145 145 145 145 145 145 145 132 132 132 132 132 132 132 134 134 216 216 216 216 216 216 216 216 216 216 216 216 184 184 184 184 3 3 3 18 18 18 18 18 18 18 18 44 44 44 41 41 41 41 41 41 41 41 41 67 67 67 67 67 67 67 67 67 67 67 67 154 154 154 154 154 154 154 154 154 154 154 186 186 186 186 186 186 186 186 186 186 186 186 186 46 46 46 46 46 46 46 81 81 81 81 81 81 81 81 81 81 81 81 81 24 24 24 24 24 24 24 24 24 24 24 24 24 9 9 9 9 9 9 9 9 9 30 30 30 30 30 30 25 25 25 25 25 25 25 25 25 25 25 25 173 173 173 173 173 45 45 45 45 45 131 131 131 13 13 13 13 13 13 13 13 13 13 13 203 203 203 203 203 203 203 203 203 103 103 103 103 103 103 103 103 103 103 103 103 103 145 145 145 145 145 145 145 145 145 132 132 132 132 132 132 132 132 134 216 216 216 216 216 216 216 216 216 216 216 216 170 3 3 3 3 3 3 3 18 18 18 18 18 18 44 44 44 44 44 41 41 41 41 41 41 41 41 41 67 67 67 67 67 67 67 67 67 67 67 154 154 154 154 154 154 154 154 154 154 154 186 186 186 186 186 186 186 186 186 186 186 186 186 186 186 186 46 46 46 46 81 81 81 81 81 81 81 81 81 81 81 81 24 24 24 24 24 24 24 24 24 24 24 24 24 24 219 9 9 9 9 9 9 30 30 30 30 30 30 30 30 25 25 25 25 25 25 25 25 25 25 25 25 173 173 173 173 173 173 45 45 45 45 131 131 131 13 13 13 13 13 13 13 13 13 13 13 203 203 203 203 203 203 203 203 203 103 103 103 103 103 103 103 103 103 103 103 103 103 145 145 145 145 145 145 145 145 145 132 132 132 132 132 132 132 132 134 216 216 216 216 216 216 216 216 216 216 216 216 170 170 3 3 3 3 3 3 18 18 18 18 18 44 44 44 44 44 44 41 41 41 41 41 41 41 41 41 67 67 67 67 67 67 67 67 67 67 67 154 154 154 154 154 154 154 154 154 154 154 186 186 186 186 186 186 186 186 186 186 186 186 186 186 186 186 186 186 186 46 81 81 81 81 81 81 81 81 81 80 80 80 24 24 24 24 24 24 24 24 24 24 24 24 24 24 219 219 219 9 30 30 30 30 30 30 30 30 30 30 30 25 25 25 25 25 25 25 25 25 25 25 25 173 173 173 173 173 173 45 45 45 45 131 131 13 13 13 13 13 13 13 13 13 13 13 13 13 203 203 203 203 203 203 203 203 203 103 103 103 103 103 103 103 103 103 103 103 145 145 145 145 145 145 145 145 145 145 145 132 132 132 132 132 132 132 134 216 216 216 216 216 216 216 216 216 216 216 216 170 170 3 3 3 3 3 3 18 18 18 18 44 44 44 44 44 44 44 44 41 41 41 41 41 41 41 41 41 67 67 67 67 67 67 67 67 67 67 154 154 154 154 154 154 154 154 154 154 186 186 186 186 186 186 186 186 186 186 186 186 186 186 186 186 186 186 186 186 186 81 81 81 81 81 81 80 80 80 80 80 80 24 24 24 24 24 24 24 24 24 24 24 24 24 24 219 219 219 30 30 30 30 30 30 30 30 30 30 30 30 25 25 25 25 25 25 25 25 25 25 25 25 173 173 173 173 173 173 173 45 45 45 131 13 13 13 13 13 13 13 13 13 13 13 13 13 13 203 203 203 203 203 203 203 203 203 103 103 103 103 103 103 103 103 103 103 145 145 145 145 145 145 145 145 145 145 145 145 132 132 132 132 132 132 132 134 216 216 216 216 216 216 216 216 216 216 216 170 170 170 170 3 3 3 3 3 3 18 18 44 44 44 44 44 44 44 44 44 44 41 41 41 41 41 41 41 41 41 67 67 67 67 67 67 67 67 67 154 154 154 154 154 154 154 154 154 154 186 186 186 186 186 186 186 186 186 186 186 186 186 186 186 186 186 186 186 186 186 81 81 80 80 80 80 80 80 80 80 141 141 141 24 24 24 24 24 24 24 24 24 24 24 24 24 219 219 219 219 30 30 30 30 30 30 30 30 30 30 30 25 25 25 25 25 25 25 25 25 25 25 25 173 173 173 173 173 173 173 173 45 45 13 13 13 13 13 13 13 13 13 13 13 13 13 13 13 203 203 203 203 203 203 203 203 213 213 213 103 22 22 22 22 22 22 22 145 145 145 145 145 145 145 145 145 145 145 145 132 132 132 132 132 132 132 132 216 216 216 216 216 216 216 216 216 216 216 170 170 170 170 3 3 3 3 3 3 18 44 44 44 44 44 44 44 44 44 44 44 41 41 41 41 41 41 41 41 41 41 82 82 82 82 82 82 82 82 154 154 154 154 154 154 154 154 154 154 186 186 186 186 186 186 186 186 186 186 186 186 186 186 186 186 186 186 186 186 186 80 80 80 80 80 80 80 80 141 141 141 141 141 141 24 24 24 24 24 24 24 24 24 24 24 24 219 219 219 219 30 30 30 30 30 30 30 30 30 30 30 30 25 25 25 25 25 25 25 25 25 25 25 173 173 173 173 173 173 173 71 71 45 13 13 13 13 13 13 13 13 13 13 13 13 13 13 13 203 203 203 203 203 203 203 213 213 213 213 22 22 22 22 22 22 22 22 145 145 145 145 145 145 145 145 145 145 145 145 145 132 132 132 132 132 132 132 216 216 216 216 216 216 216 216 216 216 216 170 170 170 170 3 3 3 3 3 3 3 44 44 44 44 44 44 44 44 44 44 44 44 41 41 41 41 41 41 41 41 82 82 82 82 82 82 82 82 82 154 154 154 154 154 154 154 154 154 154 186 186 186 186 186 186 186 186 186 186 186 186 186 186 186 186 186 186 186 186 186 80 80 80 80 80 80 141 141 141 141 141 141 141 141 141 24 24 24 24 24 24 24 24 24 24 219 219 219 219 219 30 30 30 30 30 30 30 30 30 30 30 30 25 25 25 25 25 25 25 25 25 25 25 173 173 173 173 71 71 71 71 71 71 13 13 13 13 13 13 13 13 13 13 13 13 13 13 13 203 203 203 203 203 213 213 213 213 213 213 22 22 22 22 22 22 22 145 145 145 145 145 145 145 145 145 145 145 145 145 145 132 132 132 132 132 132 132 216 216 216 216 216 216 216 216 216 216 170 170 170 170 170 170 3 3 3 3 3 3 44 44 44 44 44 44 44 44 44 44 44 44 44 41 41 41 41 41 41 41 82 82 82 82 82 82 82 82 82 154 154 154 154 154 154 154 154 154 186 186 186 186 186 186 186 186 186 186 186 186 186 186 186 186 186 186 186 186 186 186 80 80 80 80 141 141 141 141 141 141 141 141 141 141 141 141 24 24 24 24 24 24 24 24 24 219 219 219 219 219 219 30 30 30 30 30 30 30 30 30 30 30 25 25 25 25 25 25 25 25 25 25 25 71 71 71 71 71 71 71 71 71 71 13 13 13 13 13 13 13 13 13 13 13 13 13 13 13 13 203 203 203 213 213 213 213 213 213 213 22 22 22 22 22 22 22 145 145 145 145 145 145 145 145 145 145 145 145 145 145 132 132 132 132 132 132 132 216 216 216 216 216 216 216 216 216 216 170 170 170 170 170 170 3 3 3 3 3 3 44 44 44 44 44 44 44 44 44 44 44 44 44 41 41 41 41 41 41 82 82 82 82 82 82 82 82 82 133 154 154 154 154 154 154 205 205 205 205 186 186 186 186 186 186 186 186 186 186 186 186 186 186 186 186 186 186 186 186 80 80 80 141 141 141 141